+ 0.1 2 0 cbr 1000 ------- 0 2.0 1.0 0 0
- 0.1 2 0 cbr 1000 ------- 0 2.0 1.0 0 0
+ 0.1 2 0 cbr 1000 ------- 0 2.0 1.0 1 1
+ 0.1 2 0 cbr 1000 ------- 0 2.0 1.0 2 2
+ 0.1 2 0 cbr 1000 ------- 0 2.0 1.0 3 3
+ 0.1 2 0 cbr 1000 ------- 0 2.0 1.0 4 4
+ 0.1 2 0 cbr 1000 ------- 0 2.0 1.0 5 5
+ 0.1 2 0 cbr 1000 ------- 0 2.0 1.0 6 6
+ 0.1 3 0 cbr 1000 ------- 0 3.0 1.0 0 7
- 0.1 3 0 cbr 1000 ------- 0 3.0 1.0 0 7
+ 0.1 3 0 cbr 1000 ------- 0 3.0 1.0 1 8
+ 0.1 3 0 cbr 1000 ------- 0 3.0 1.0 2 9
+ 0.1 3 0 cbr 1000 ------- 0 3.0 1.0 3 10
+ 0.1 3 0 cbr 1000 ------- 0 3.0 1.0 4 11
+ 0.1 3 0 cbr 1000 ------- 0 3.0 1.0 5 12
+ 0.1 3 0 cbr 1000 ------- 0 3.0 1.0 6 13
- 0.100667 2 0 cbr 1000 ------- 0 2.0 1.0 1 1
- 0.100667 3 0 cbr 1000 ------- 0 3.0 1.0 1 8
- 0.101333 2 0 cbr 1000 ------- 0 2.0 1.0 2 2
- 0.101333 3 0 cbr 1000 ------- 0 3.0 1.0 2 9
- 0.102 2 0 cbr 1000 ------- 0 2.0 1.0 3 3
- 0.102 3 0 cbr 1000 ------- 0 3.0 1.0 3 10
- 0.102667 2 0 cbr 1000 ------- 0 2.0 1.0 4 4
- 0.102667 3 0 cbr 1000 ------- 0 3.0 1.0 4 11
- 0.103333 2 0 cbr 1000 ------- 0 2.0 1.0 5 5
- 0.103333 3 0 cbr 1000 ------- 0 3.0 1.0 5 12
- 0.104 2 0 cbr 1000 ------- 0 2.0 1.0 6 6
- 0.104 3 0 cbr 1000 ------- 0 3.0 1.0 6 13
+ 0.15 3 0 cbr 1000 ------- 0 3.0 1.0 7 14
- 0.15 3 0 cbr 1000 ------- 0 3.0 1.0 7 14
+ 0.15 3 0 cbr 1000 ------- 0 3.0 1.0 8 15
+ 0.15 3 0 cbr 1000 ------- 0 3.0 1.0 9 16
+ 0.15 3 0 cbr 1000 ------- 0 3.0 1.0 10 17
+ 0.15 3 0 cbr 1000 ------- 0 3.0 1.0 11 18
+ 0.15 3 0 cbr 1000 ------- 0 3.0 1.0 12 19
+ 0.15 3 0 cbr 1000 ------- 0 3.0 1.0 13 20
- 0.150667 3 0 cbr 1000 ------- 0 3.0 1.0 8 15
- 0.151333 3 0 cbr 1000 ------- 0 3.0 1.0 9 16
- 0.152 3 0 cbr 1000 ------- 0 3.0 1.0 10 17
- 0.152667 3 0 cbr 1000 ------- 0 3.0 1.0 11 18
- 0.153333 3 0 cbr 1000 ------- 0 3.0 1.0 12 19
- 0.154 3 0 cbr 1000 ------- 0 3.0 1.0 13 20
+ 0.18 2 0 cbr 1000 ------- 0 2.0 1.0 7 21
- 0.18 2 0 cbr 1000 ------- 0 2.0 1.0 7 21
+ 0.18 2 0 cbr 1000 ------- 0 2.0 1.0 8 22
+ 0.18 2 0 cbr 1000 ------- 0 2.0 1.0 9 23
+ 0.18 2 0 cbr 1000 ------- 0 2.0 1.0 10 24
+ 0.18 2 0 cbr 1000 ------- 0 2.0 1.0 11 25
+ 0.18 2 0 cbr 1000 ------- 0 2.0 1.0 12 26
+ 0.18 2 0 cbr 1000 ------- 0 2.0 1.0 13 27
- 0.180667 2 0 cbr 1000 ------- 0 2.0 1.0 8 22
- 0.181333 2 0 cbr 1000 ------- 0 2.0 1.0 9 23
- 0.182 2 0 cbr 1000 ------- 0 2.0 1.0 10 24
- 0.182667 2 0 cbr 1000 ------- 0 2.0 1.0 11 25
- 0.183333 2 0 cbr 1000 ------- 0 2.0 1.0 12 26
- 0.184 2 0 cbr 1000 ------- 0 2.0 1.0 13 27
+ 0.2 3 0 cbr 1000 ------- 0 3.0 1.0 14 28
- 0.2 3 0 cbr 1000 ------- 0 3.0 1.0 14 28
+ 0.2 3 0 cbr 1000 ------- 0 3.0 1.0 15 29
+ 0.2 3 0 cbr 1000 ------- 0 3.0 1.0 16 30
+ 0.2 3 0 cbr 1000 ------- 0 3.0 1.0 17 31
+ 0.2 3 0 cbr 1000 ------- 0 3.0 1.0 18 32
+ 0.2 3 0 cbr 1000 ------- 0 3.0 1.0 19 33
+ 0.2 3 0 cbr 1000 ------- 0 3.0 1.0 20 34
r 0.200667 2 0 cbr 1000 ------- 0 2.0 1.0 0 0
+ 0.200667 0 1 cbr 1000 ------- 0 2.0 1.0 0 0
- 0.200667 0 1 cbr 1000 ------- 0 2.0 1.0 0 0
r 0.200667 3 0 cbr 1000 ------- 0 3.0 1.0 0 7
+ 0.200667 0 1 cbr 1000 ------- 0 3.0 1.0 0 7
- 0.200667 3 0 cbr 1000 ------- 0 3.0 1.0 15 29
r 0.201333 2 0 cbr 1000 ------- 0 2.0 1.0 1 1
+ 0.201333 0 1 cbr 1000 ------- 0 2.0 1.0 1 1
r 0.201333 3 0 cbr 1000 ------- 0 3.0 1.0 1 8
+ 0.201333 0 1 cbr 1000 ------- 0 3.0 1.0 1 8
- 0.201333 3 0 cbr 1000 ------- 0 3.0 1.0 16 30
- 0.202 0 1 cbr 1000 ------- 0 3.0 1.0 0 7
r 0.202 2 0 cbr 1000 ------- 0 2.0 1.0 2 2
+ 0.202 0 1 cbr 1000 ------- 0 2.0 1.0 2 2
r 0.202 3 0 cbr 1000 ------- 0 3.0 1.0 2 9
+ 0.202 0 1 cbr 1000 ------- 0 3.0 1.0 2 9
- 0.202 3 0 cbr 1000 ------- 0 3.0 1.0 17 31
r 0.202667 2 0 cbr 1000 ------- 0 2.0 1.0 3 3
+ 0.202667 0 1 cbr 1000 ------- 0 2.0 1.0 3 3
r 0.202667 3 0 cbr 1000 ------- 0 3.0 1.0 3 10
+ 0.202667 0 1 cbr 1000 ------- 0 3.0 1.0 3 10
- 0.202667 3 0 cbr 1000 ------- 0 3.0 1.0 18 32
r 0.203333 2 0 cbr 1000 ------- 0 2.0 1.0 4 4
+ 0.203333 0 1 cbr 1000 ------- 0 2.0 1.0 4 4
r 0.203333 3 0 cbr 1000 ------- 0 3.0 1.0 4 11
+ 0.203333 0 1 cbr 1000 ------- 0 3.0 1.0 4 11
- 0.203333 0 1 cbr 1000 ------- 0 2.0 1.0 1 1
- 0.203333 3 0 cbr 1000 ------- 0 3.0 1.0 19 33
r 0.204 2 0 cbr 1000 ------- 0 2.0 1.0 5 5
+ 0.204 0 1 cbr 1000 ------- 0 2.0 1.0 5 5
r 0.204 3 0 cbr 1000 ------- 0 3.0 1.0 5 12
+ 0.204 0 1 cbr 1000 ------- 0 3.0 1.0 5 12
- 0.204 3 0 cbr 1000 ------- 0 3.0 1.0 20 34
- 0.204667 0 1 cbr 1000 ------- 0 3.0 1.0 1 8
r 0.204667 2 0 cbr 1000 ------- 0 2.0 1.0 6 6
+ 0.204667 0 1 cbr 1000 ------- 0 2.0 1.0 6 6
r 0.204667 3 0 cbr 1000 ------- 0 3.0 1.0 6 13
+ 0.204667 0 1 cbr 1000 ------- 0 3.0 1.0 6 13
- 0.206 0 1 cbr 1000 ------- 0 2.0 1.0 2 2
- 0.207333 0 1 cbr 1000 ------- 0 3.0 1.0 2 9
- 0.208667 0 1 cbr 1000 ------- 0 2.0 1.0 3 3
- 0.21 0 1 cbr 1000 ------- 0 3.0 1.0 3 10
- 0.211333 0 1 cbr 1000 ------- 0 2.0 1.0 4 4
- 0.212667 0 1 cbr 1000 ------- 0 3.0 1.0 4 11
- 0.214 0 1 cbr 1000 ------- 0 2.0 1.0 5 5
- 0.215333 0 1 cbr 1000 ------- 0 3.0 1.0 5 12
- 0.216667 0 1 cbr 1000 ------- 0 2.0 1.0 6 6
- 0.218 0 1 cbr 1000 ------- 0 3.0 1.0 6 13
+ 0.25 3 0 cbr 1000 ------- 0 3.0 1.0 21 35
- 0.25 3 0 cbr 1000 ------- 0 3.0 1.0 21 35
+ 0.25 3 0 cbr 1000 ------- 0 3.0 1.0 22 36
+ 0.25 3 0 cbr 1000 ------- 0 3.0 1.0 23 37
+ 0.25 3 0 cbr 1000 ------- 0 3.0 1.0 24 38
+ 0.25 3 0 cbr 1000 ------- 0 3.0 1.0 25 39
+ 0.25 3 0 cbr 1000 ------- 0 3.0 1.0 26 40
+ 0.25 3 0 cbr 1000 ------- 0 3.0 1.0 27 41
- 0.250667 3 0 cbr 1000 ------- 0 3.0 1.0 22 36
r 0.250667 3 0 cbr 1000 ------- 0 3.0 1.0 7 14
+ 0.250667 0 1 cbr 1000 ------- 0 3.0 1.0 7 14
- 0.250667 0 1 cbr 1000 ------- 0 3.0 1.0 7 14
- 0.251333 3 0 cbr 1000 ------- 0 3.0 1.0 23 37
r 0.251333 3 0 cbr 1000 ------- 0 3.0 1.0 8 15
+ 0.251333 0 1 cbr 1000 ------- 0 3.0 1.0 8 15
- 0.252 3 0 cbr 1000 ------- 0 3.0 1.0 24 38
r 0.252 3 0 cbr 1000 ------- 0 3.0 1.0 9 16
+ 0.252 0 1 cbr 1000 ------- 0 3.0 1.0 9 16
- 0.252 0 1 cbr 1000 ------- 0 3.0 1.0 8 15
- 0.252667 3 0 cbr 1000 ------- 0 3.0 1.0 25 39
r 0.252667 3 0 cbr 1000 ------- 0 3.0 1.0 10 17
+ 0.252667 0 1 cbr 1000 ------- 0 3.0 1.0 10 17
- 0.253333 3 0 cbr 1000 ------- 0 3.0 1.0 26 40
r 0.253333 3 0 cbr 1000 ------- 0 3.0 1.0 11 18
+ 0.253333 0 1 cbr 1000 ------- 0 3.0 1.0 11 18
- 0.253333 0 1 cbr 1000 ------- 0 3.0 1.0 9 16
- 0.254 3 0 cbr 1000 ------- 0 3.0 1.0 27 41
r 0.254 3 0 cbr 1000 ------- 0 3.0 1.0 12 19
+ 0.254 0 1 cbr 1000 ------- 0 3.0 1.0 12 19
r 0.254667 3 0 cbr 1000 ------- 0 3.0 1.0 13 20
+ 0.254667 0 1 cbr 1000 ------- 0 3.0 1.0 13 20
- 0.254667 0 1 cbr 1000 ------- 0 3.0 1.0 10 17
- 0.256 0 1 cbr 1000 ------- 0 3.0 1.0 11 18
- 0.257333 0 1 cbr 1000 ------- 0 3.0 1.0 12 19
- 0.258667 0 1 cbr 1000 ------- 0 3.0 1.0 13 20
+ 0.26 2 0 cbr 1000 ------- 0 2.0 1.0 14 42
- 0.26 2 0 cbr 1000 ------- 0 2.0 1.0 14 42
+ 0.26 2 0 cbr 1000 ------- 0 2.0 1.0 15 43
+ 0.26 2 0 cbr 1000 ------- 0 2.0 1.0 16 44
+ 0.26 2 0 cbr 1000 ------- 0 2.0 1.0 17 45
+ 0.26 2 0 cbr 1000 ------- 0 2.0 1.0 18 46
+ 0.26 2 0 cbr 1000 ------- 0 2.0 1.0 19 47
+ 0.26 2 0 cbr 1000 ------- 0 2.0 1.0 20 48
- 0.260667 2 0 cbr 1000 ------- 0 2.0 1.0 15 43
- 0.261333 2 0 cbr 1000 ------- 0 2.0 1.0 16 44
- 0.262 2 0 cbr 1000 ------- 0 2.0 1.0 17 45
- 0.262667 2 0 cbr 1000 ------- 0 2.0 1.0 18 46
- 0.263333 2 0 cbr 1000 ------- 0 2.0 1.0 19 47
- 0.264 2 0 cbr 1000 ------- 0 2.0 1.0 20 48
r 0.280667 2 0 cbr 1000 ------- 0 2.0 1.0 7 21
+ 0.280667 0 1 cbr 1000 ------- 0 2.0 1.0 7 21
- 0.280667 0 1 cbr 1000 ------- 0 2.0 1.0 7 21
r 0.281333 2 0 cbr 1000 ------- 0 2.0 1.0 8 22
+ 0.281333 0 1 cbr 1000 ------- 0 2.0 1.0 8 22
r 0.282 2 0 cbr 1000 ------- 0 2.0 1.0 9 23
+ 0.282 0 1 cbr 1000 ------- 0 2.0 1.0 9 23
- 0.282 0 1 cbr 1000 ------- 0 2.0 1.0 8 22
r 0.282667 2 0 cbr 1000 ------- 0 2.0 1.0 10 24
+ 0.282667 0 1 cbr 1000 ------- 0 2.0 1.0 10 24
r 0.283333 2 0 cbr 1000 ------- 0 2.0 1.0 11 25
+ 0.283333 0 1 cbr 1000 ------- 0 2.0 1.0 11 25
- 0.283333 0 1 cbr 1000 ------- 0 2.0 1.0 9 23
r 0.284 2 0 cbr 1000 ------- 0 2.0 1.0 12 26
+ 0.284 0 1 cbr 1000 ------- 0 2.0 1.0 12 26
r 0.284667 2 0 cbr 1000 ------- 0 2.0 1.0 13 27
+ 0.284667 0 1 cbr 1000 ------- 0 2.0 1.0 13 27
- 0.284667 0 1 cbr 1000 ------- 0 2.0 1.0 10 24
- 0.286 0 1 cbr 1000 ------- 0 2.0 1.0 11 25
- 0.287333 0 1 cbr 1000 ------- 0 2.0 1.0 12 26
- 0.288667 0 1 cbr 1000 ------- 0 2.0 1.0 13 27
+ 0.3 3 0 cbr 1000 ------- 0 3.0 1.0 28 49
- 0.3 3 0 cbr 1000 ------- 0 3.0 1.0 28 49
+ 0.3 3 0 cbr 1000 ------- 0 3.0 1.0 29 50
+ 0.3 3 0 cbr 1000 ------- 0 3.0 1.0 30 51
+ 0.3 3 0 cbr 1000 ------- 0 3.0 1.0 31 52
+ 0.3 3 0 cbr 1000 ------- 0 3.0 1.0 32 53
+ 0.3 3 0 cbr 1000 ------- 0 3.0 1.0 33 54
+ 0.3 3 0 cbr 1000 ------- 0 3.0 1.0 34 55
- 0.300667 3 0 cbr 1000 ------- 0 3.0 1.0 29 50
r 0.300667 3 0 cbr 1000 ------- 0 3.0 1.0 14 28
+ 0.300667 0 1 cbr 1000 ------- 0 3.0 1.0 14 28
- 0.300667 0 1 cbr 1000 ------- 0 3.0 1.0 14 28
- 0.301333 3 0 cbr 1000 ------- 0 3.0 1.0 30 51
r 0.301333 3 0 cbr 1000 ------- 0 3.0 1.0 15 29
+ 0.301333 0 1 cbr 1000 ------- 0 3.0 1.0 15 29
- 0.302 3 0 cbr 1000 ------- 0 3.0 1.0 31 52
r 0.302 3 0 cbr 1000 ------- 0 3.0 1.0 16 30
+ 0.302 0 1 cbr 1000 ------- 0 3.0 1.0 16 30
- 0.302 0 1 cbr 1000 ------- 0 3.0 1.0 15 29
- 0.302667 3 0 cbr 1000 ------- 0 3.0 1.0 32 53
r 0.302667 3 0 cbr 1000 ------- 0 3.0 1.0 17 31
+ 0.302667 0 1 cbr 1000 ------- 0 3.0 1.0 17 31
- 0.303333 3 0 cbr 1000 ------- 0 3.0 1.0 33 54
r 0.303333 3 0 cbr 1000 ------- 0 3.0 1.0 18 32
+ 0.303333 0 1 cbr 1000 ------- 0 3.0 1.0 18 32
- 0.303333 0 1 cbr 1000 ------- 0 3.0 1.0 16 30
- 0.304 3 0 cbr 1000 ------- 0 3.0 1.0 34 55
r 0.304 3 0 cbr 1000 ------- 0 3.0 1.0 19 33
+ 0.304 0 1 cbr 1000 ------- 0 3.0 1.0 19 33
r 0.304667 3 0 cbr 1000 ------- 0 3.0 1.0 20 34
+ 0.304667 0 1 cbr 1000 ------- 0 3.0 1.0 20 34
- 0.304667 0 1 cbr 1000 ------- 0 3.0 1.0 17 31
- 0.306 0 1 cbr 1000 ------- 0 3.0 1.0 18 32
- 0.307333 0 1 cbr 1000 ------- 0 3.0 1.0 19 33
- 0.308667 0 1 cbr 1000 ------- 0 3.0 1.0 20 34
+ 0.34 2 0 cbr 1000 ------- 0 2.0 1.0 21 56
- 0.34 2 0 cbr 1000 ------- 0 2.0 1.0 21 56
+ 0.34 2 0 cbr 1000 ------- 0 2.0 1.0 22 57
+ 0.34 2 0 cbr 1000 ------- 0 2.0 1.0 23 58
+ 0.34 2 0 cbr 1000 ------- 0 2.0 1.0 24 59
+ 0.34 2 0 cbr 1000 ------- 0 2.0 1.0 25 60
+ 0.34 2 0 cbr 1000 ------- 0 2.0 1.0 26 61
+ 0.34 2 0 cbr 1000 ------- 0 2.0 1.0 27 62
- 0.340667 2 0 cbr 1000 ------- 0 2.0 1.0 22 57
- 0.341333 2 0 cbr 1000 ------- 0 2.0 1.0 23 58
- 0.342 2 0 cbr 1000 ------- 0 2.0 1.0 24 59
- 0.342667 2 0 cbr 1000 ------- 0 2.0 1.0 25 60
- 0.343333 2 0 cbr 1000 ------- 0 2.0 1.0 26 61
- 0.344 2 0 cbr 1000 ------- 0 2.0 1.0 27 62
+ 0.35 3 0 cbr 1000 ------- 0 3.0 1.0 35 63
- 0.35 3 0 cbr 1000 ------- 0 3.0 1.0 35 63
+ 0.35 3 0 cbr 1000 ------- 0 3.0 1.0 36 64
+ 0.35 3 0 cbr 1000 ------- 0 3.0 1.0 37 65
+ 0.35 3 0 cbr 1000 ------- 0 3.0 1.0 38 66
+ 0.35 3 0 cbr 1000 ------- 0 3.0 1.0 39 67
+ 0.35 3 0 cbr 1000 ------- 0 3.0 1.0 40 68
+ 0.35 3 0 cbr 1000 ------- 0 3.0 1.0 41 69
- 0.350667 3 0 cbr 1000 ------- 0 3.0 1.0 36 64
r 0.350667 3 0 cbr 1000 ------- 0 3.0 1.0 21 35
+ 0.350667 0 1 cbr 1000 ------- 0 3.0 1.0 21 35
- 0.350667 0 1 cbr 1000 ------- 0 3.0 1.0 21 35
- 0.351333 3 0 cbr 1000 ------- 0 3.0 1.0 37 65
r 0.351333 3 0 cbr 1000 ------- 0 3.0 1.0 22 36
+ 0.351333 0 1 cbr 1000 ------- 0 3.0 1.0 22 36
- 0.352 3 0 cbr 1000 ------- 0 3.0 1.0 38 66
r 0.352 3 0 cbr 1000 ------- 0 3.0 1.0 23 37
+ 0.352 0 1 cbr 1000 ------- 0 3.0 1.0 23 37
- 0.352 0 1 cbr 1000 ------- 0 3.0 1.0 22 36
- 0.352667 3 0 cbr 1000 ------- 0 3.0 1.0 39 67
r 0.352667 3 0 cbr 1000 ------- 0 3.0 1.0 24 38
+ 0.352667 0 1 cbr 1000 ------- 0 3.0 1.0 24 38
- 0.353333 3 0 cbr 1000 ------- 0 3.0 1.0 40 68
r 0.353333 3 0 cbr 1000 ------- 0 3.0 1.0 25 39
+ 0.353333 0 1 cbr 1000 ------- 0 3.0 1.0 25 39
- 0.353333 0 1 cbr 1000 ------- 0 3.0 1.0 23 37
- 0.354 3 0 cbr 1000 ------- 0 3.0 1.0 41 69
r 0.354 3 0 cbr 1000 ------- 0 3.0 1.0 26 40
+ 0.354 0 1 cbr 1000 ------- 0 3.0 1.0 26 40
r 0.354667 3 0 cbr 1000 ------- 0 3.0 1.0 27 41
+ 0.354667 0 1 cbr 1000 ------- 0 3.0 1.0 27 41
- 0.354667 0 1 cbr 1000 ------- 0 3.0 1.0 24 38
- 0.356 0 1 cbr 1000 ------- 0 3.0 1.0 25 39
- 0.357333 0 1 cbr 1000 ------- 0 3.0 1.0 26 40
- 0.358667 0 1 cbr 1000 ------- 0 3.0 1.0 27 41
r 0.360667 2 0 cbr 1000 ------- 0 2.0 1.0 14 42
+ 0.360667 0 1 cbr 1000 ------- 0 2.0 1.0 14 42
- 0.360667 0 1 cbr 1000 ------- 0 2.0 1.0 14 42
r 0.361333 2 0 cbr 1000 ------- 0 2.0 1.0 15 43
+ 0.361333 0 1 cbr 1000 ------- 0 2.0 1.0 15 43
r 0.362 2 0 cbr 1000 ------- 0 2.0 1.0 16 44
+ 0.362 0 1 cbr 1000 ------- 0 2.0 1.0 16 44
- 0.362 0 1 cbr 1000 ------- 0 2.0 1.0 15 43
r 0.362667 2 0 cbr 1000 ------- 0 2.0 1.0 17 45
+ 0.362667 0 1 cbr 1000 ------- 0 2.0 1.0 17 45
r 0.363333 2 0 cbr 1000 ------- 0 2.0 1.0 18 46
+ 0.363333 0 1 cbr 1000 ------- 0 2.0 1.0 18 46
- 0.363333 0 1 cbr 1000 ------- 0 2.0 1.0 16 44
r 0.364 2 0 cbr 1000 ------- 0 2.0 1.0 19 47
+ 0.364 0 1 cbr 1000 ------- 0 2.0 1.0 19 47
r 0.364667 2 0 cbr 1000 ------- 0 2.0 1.0 20 48
+ 0.364667 0 1 cbr 1000 ------- 0 2.0 1.0 20 48
- 0.364667 0 1 cbr 1000 ------- 0 2.0 1.0 17 45
- 0.366 0 1 cbr 1000 ------- 0 2.0 1.0 18 46
- 0.367333 0 1 cbr 1000 ------- 0 2.0 1.0 19 47
- 0.368667 0 1 cbr 1000 ------- 0 2.0 1.0 20 48
+ 0.4 3 0 cbr 1000 ------- 0 3.0 1.0 42 70
- 0.4 3 0 cbr 1000 ------- 0 3.0 1.0 42 70
+ 0.4 3 0 cbr 1000 ------- 0 3.0 1.0 43 71
+ 0.4 3 0 cbr 1000 ------- 0 3.0 1.0 44 72
+ 0.4 3 0 cbr 1000 ------- 0 3.0 1.0 45 73
+ 0.4 3 0 cbr 1000 ------- 0 3.0 1.0 46 74
+ 0.4 3 0 cbr 1000 ------- 0 3.0 1.0 47 75
+ 0.4 3 0 cbr 1000 ------- 0 3.0 1.0 48 76
- 0.400667 3 0 cbr 1000 ------- 0 3.0 1.0 43 71
r 0.400667 3 0 cbr 1000 ------- 0 3.0 1.0 28 49
+ 0.400667 0 1 cbr 1000 ------- 0 3.0 1.0 28 49
- 0.400667 0 1 cbr 1000 ------- 0 3.0 1.0 28 49
- 0.401333 3 0 cbr 1000 ------- 0 3.0 1.0 44 72
r 0.401333 3 0 cbr 1000 ------- 0 3.0 1.0 29 50
+ 0.401333 0 1 cbr 1000 ------- 0 3.0 1.0 29 50
- 0.402 3 0 cbr 1000 ------- 0 3.0 1.0 45 73
r 0.402 3 0 cbr 1000 ------- 0 3.0 1.0 30 51
+ 0.402 0 1 cbr 1000 ------- 0 3.0 1.0 30 51
r 0.402 0 1 cbr 1000 ------- 0 2.0 1.0 0 0
- 0.402 0 1 cbr 1000 ------- 0 3.0 1.0 29 50
- 0.402667 3 0 cbr 1000 ------- 0 3.0 1.0 46 74
r 0.402667 3 0 cbr 1000 ------- 0 3.0 1.0 31 52
+ 0.402667 0 1 cbr 1000 ------- 0 3.0 1.0 31 52
- 0.403333 3 0 cbr 1000 ------- 0 3.0 1.0 47 75
r 0.403333 3 0 cbr 1000 ------- 0 3.0 1.0 32 53
+ 0.403333 0 1 cbr 1000 ------- 0 3.0 1.0 32 53
r 0.403333 0 1 cbr 1000 ------- 0 3.0 1.0 0 7
- 0.403333 0 1 cbr 1000 ------- 0 3.0 1.0 30 51
- 0.404 3 0 cbr 1000 ------- 0 3.0 1.0 48 76
r 0.404 3 0 cbr 1000 ------- 0 3.0 1.0 33 54
+ 0.404 0 1 cbr 1000 ------- 0 3.0 1.0 33 54
r 0.404667 3 0 cbr 1000 ------- 0 3.0 1.0 34 55
+ 0.404667 0 1 cbr 1000 ------- 0 3.0 1.0 34 55
r 0.404667 0 1 cbr 1000 ------- 0 2.0 1.0 1 1
- 0.404667 0 1 cbr 1000 ------- 0 3.0 1.0 31 52
r 0.406 0 1 cbr 1000 ------- 0 3.0 1.0 1 8
- 0.406 0 1 cbr 1000 ------- 0 3.0 1.0 32 53
r 0.407333 0 1 cbr 1000 ------- 0 2.0 1.0 2 2
- 0.407333 0 1 cbr 1000 ------- 0 3.0 1.0 33 54
r 0.408667 0 1 cbr 1000 ------- 0 3.0 1.0 2 9
- 0.408667 0 1 cbr 1000 ------- 0 3.0 1.0 34 55
r 0.41 0 1 cbr 1000 ------- 0 2.0 1.0 3 3
r 0.411333 0 1 cbr 1000 ------- 0 3.0 1.0 3 10
r 0.412667 0 1 cbr 1000 ------- 0 2.0 1.0 4 4
r 0.414 0 1 cbr 1000 ------- 0 3.0 1.0 4 11
r 0.415333 0 1 cbr 1000 ------- 0 2.0 1.0 5 5
r 0.416667 0 1 cbr 1000 ------- 0 3.0 1.0 5 12
r 0.418 0 1 cbr 1000 ------- 0 2.0 1.0 6 6
r 0.419333 0 1 cbr 1000 ------- 0 3.0 1.0 6 13
+ 0.42 2 0 cbr 1000 ------- 0 2.0 1.0 28 77
- 0.42 2 0 cbr 1000 ------- 0 2.0 1.0 28 77
+ 0.42 2 0 cbr 1000 ------- 0 2.0 1.0 29 78
+ 0.42 2 0 cbr 1000 ------- 0 2.0 1.0 30 79
+ 0.42 2 0 cbr 1000 ------- 0 2.0 1.0 31 80
+ 0.42 2 0 cbr 1000 ------- 0 2.0 1.0 32 81
+ 0.42 2 0 cbr 1000 ------- 0 2.0 1.0 33 82
+ 0.42 2 0 cbr 1000 ------- 0 2.0 1.0 34 83
- 0.420667 2 0 cbr 1000 ------- 0 2.0 1.0 29 78
- 0.421333 2 0 cbr 1000 ------- 0 2.0 1.0 30 79
- 0.422 2 0 cbr 1000 ------- 0 2.0 1.0 31 80
- 0.422667 2 0 cbr 1000 ------- 0 2.0 1.0 32 81
- 0.423333 2 0 cbr 1000 ------- 0 2.0 1.0 33 82
- 0.424 2 0 cbr 1000 ------- 0 2.0 1.0 34 83
r 0.440667 2 0 cbr 1000 ------- 0 2.0 1.0 21 56
+ 0.440667 0 1 cbr 1000 ------- 0 2.0 1.0 21 56
- 0.440667 0 1 cbr 1000 ------- 0 2.0 1.0 21 56
r 0.441333 2 0 cbr 1000 ------- 0 2.0 1.0 22 57
+ 0.441333 0 1 cbr 1000 ------- 0 2.0 1.0 22 57
r 0.442 2 0 cbr 1000 ------- 0 2.0 1.0 23 58
+ 0.442 0 1 cbr 1000 ------- 0 2.0 1.0 23 58
- 0.442 0 1 cbr 1000 ------- 0 2.0 1.0 22 57
r 0.442667 2 0 cbr 1000 ------- 0 2.0 1.0 24 59
+ 0.442667 0 1 cbr 1000 ------- 0 2.0 1.0 24 59
r 0.443333 2 0 cbr 1000 ------- 0 2.0 1.0 25 60
+ 0.443333 0 1 cbr 1000 ------- 0 2.0 1.0 25 60
- 0.443333 0 1 cbr 1000 ------- 0 2.0 1.0 23 58
r 0.444 2 0 cbr 1000 ------- 0 2.0 1.0 26 61
+ 0.444 0 1 cbr 1000 ------- 0 2.0 1.0 26 61
r 0.444667 2 0 cbr 1000 ------- 0 2.0 1.0 27 62
+ 0.444667 0 1 cbr 1000 ------- 0 2.0 1.0 27 62
- 0.444667 0 1 cbr 1000 ------- 0 2.0 1.0 24 59
- 0.446 0 1 cbr 1000 ------- 0 2.0 1.0 25 60
- 0.447333 0 1 cbr 1000 ------- 0 2.0 1.0 26 61
- 0.448667 0 1 cbr 1000 ------- 0 2.0 1.0 27 62
+ 0.45 3 0 cbr 1000 ------- 0 3.0 1.0 49 84
- 0.45 3 0 cbr 1000 ------- 0 3.0 1.0 49 84
+ 0.45 3 0 cbr 1000 ------- 0 3.0 1.0 50 85
+ 0.45 3 0 cbr 1000 ------- 0 3.0 1.0 51 86
+ 0.45 3 0 cbr 1000 ------- 0 3.0 1.0 52 87
+ 0.45 3 0 cbr 1000 ------- 0 3.0 1.0 53 88
+ 0.45 3 0 cbr 1000 ------- 0 3.0 1.0 54 89
+ 0.45 3 0 cbr 1000 ------- 0 3.0 1.0 55 90
- 0.450667 3 0 cbr 1000 ------- 0 3.0 1.0 50 85
r 0.450667 3 0 cbr 1000 ------- 0 3.0 1.0 35 63
+ 0.450667 0 1 cbr 1000 ------- 0 3.0 1.0 35 63
- 0.450667 0 1 cbr 1000 ------- 0 3.0 1.0 35 63
- 0.451333 3 0 cbr 1000 ------- 0 3.0 1.0 51 86
r 0.451333 3 0 cbr 1000 ------- 0 3.0 1.0 36 64
+ 0.451333 0 1 cbr 1000 ------- 0 3.0 1.0 36 64
- 0.452 3 0 cbr 1000 ------- 0 3.0 1.0 52 87
r 0.452 3 0 cbr 1000 ------- 0 3.0 1.0 37 65
+ 0.452 0 1 cbr 1000 ------- 0 3.0 1.0 37 65
- 0.452 0 1 cbr 1000 ------- 0 3.0 1.0 36 64
r 0.452 0 1 cbr 1000 ------- 0 3.0 1.0 7 14
- 0.452667 3 0 cbr 1000 ------- 0 3.0 1.0 53 88
r 0.452667 3 0 cbr 1000 ------- 0 3.0 1.0 38 66
+ 0.452667 0 1 cbr 1000 ------- 0 3.0 1.0 38 66
- 0.453333 3 0 cbr 1000 ------- 0 3.0 1.0 54 89
r 0.453333 3 0 cbr 1000 ------- 0 3.0 1.0 39 67
+ 0.453333 0 1 cbr 1000 ------- 0 3.0 1.0 39 67
r 0.453333 0 1 cbr 1000 ------- 0 3.0 1.0 8 15
- 0.453333 0 1 cbr 1000 ------- 0 3.0 1.0 37 65
- 0.454 3 0 cbr 1000 ------- 0 3.0 1.0 55 90
r 0.454 3 0 cbr 1000 ------- 0 3.0 1.0 40 68
+ 0.454 0 1 cbr 1000 ------- 0 3.0 1.0 40 68
r 0.454667 3 0 cbr 1000 ------- 0 3.0 1.0 41 69
+ 0.454667 0 1 cbr 1000 ------- 0 3.0 1.0 41 69
- 0.454667 0 1 cbr 1000 ------- 0 3.0 1.0 38 66
r 0.454667 0 1 cbr 1000 ------- 0 3.0 1.0 9 16
r 0.456 0 1 cbr 1000 ------- 0 3.0 1.0 10 17
- 0.456 0 1 cbr 1000 ------- 0 3.0 1.0 39 67
- 0.457333 0 1 cbr 1000 ------- 0 3.0 1.0 40 68
r 0.457333 0 1 cbr 1000 ------- 0 3.0 1.0 11 18
r 0.458667 0 1 cbr 1000 ------- 0 3.0 1.0 12 19
- 0.458667 0 1 cbr 1000 ------- 0 3.0 1.0 41 69
r 0.46 0 1 cbr 1000 ------- 0 3.0 1.0 13 20
r 0.482 0 1 cbr 1000 ------- 0 2.0 1.0 7 21
r 0.483333 0 1 cbr 1000 ------- 0 2.0 1.0 8 22
r 0.484667 0 1 cbr 1000 ------- 0 2.0 1.0 9 23
r 0.486 0 1 cbr 1000 ------- 0 2.0 1.0 10 24
r 0.487333 0 1 cbr 1000 ------- 0 2.0 1.0 11 25
r 0.488667 0 1 cbr 1000 ------- 0 2.0 1.0 12 26
r 0.49 0 1 cbr 1000 ------- 0 2.0 1.0 13 27
+ 0.5 3 0 cbr 1000 ------- 0 3.0 1.0 56 91
- 0.5 3 0 cbr 1000 ------- 0 3.0 1.0 56 91
+ 0.5 3 0 cbr 1000 ------- 0 3.0 1.0 57 92
+ 0.5 3 0 cbr 1000 ------- 0 3.0 1.0 58 93
+ 0.5 3 0 cbr 1000 ------- 0 3.0 1.0 59 94
+ 0.5 3 0 cbr 1000 ------- 0 3.0 1.0 60 95
+ 0.5 3 0 cbr 1000 ------- 0 3.0 1.0 61 96
+ 0.5 3 0 cbr 1000 ------- 0 3.0 1.0 62 97
+ 0.5 4 0 cbr 1000 ------- 0 4.0 1.0 0 98
- 0.5 4 0 cbr 1000 ------- 0 4.0 1.0 0 98
+ 0.5 4 0 cbr 1000 ------- 0 4.0 1.0 1 99
+ 0.5 4 0 cbr 1000 ------- 0 4.0 1.0 2 100
+ 0.5 4 0 cbr 1000 ------- 0 4.0 1.0 3 101
+ 0.5 4 0 cbr 1000 ------- 0 4.0 1.0 4 102
+ 0.5 4 0 cbr 1000 ------- 0 4.0 1.0 5 103
+ 0.5 4 0 cbr 1000 ------- 0 4.0 1.0 6 104
+ 0.5 4 0 cbr 1000 ------- 0 4.0 1.0 7 105
+ 0.5 4 0 cbr 1000 ------- 0 4.0 1.0 8 106
+ 0.5 4 0 cbr 1000 ------- 0 4.0 1.0 9 107
+ 0.5 4 0 cbr 1000 ------- 0 4.0 1.0 10 108
+ 0.5 4 0 cbr 1000 ------- 0 4.0 1.0 11 109
+ 0.5 4 0 cbr 1000 ------- 0 4.0 1.0 12 110
+ 0.5 4 0 cbr 1000 ------- 0 4.0 1.0 13 111
+ 0.5 4 0 cbr 1000 ------- 0 4.0 1.0 14 112
+ 0.5 4 0 cbr 1000 ------- 0 4.0 1.0 15 113
+ 0.5 4 0 cbr 1000 ------- 0 4.0 1.0 16 114
+ 0.5 4 0 cbr 1000 ------- 0 4.0 1.0 17 115
+ 0.5 4 0 cbr 1000 ------- 0 4.0 1.0 18 116
+ 0.5 4 0 cbr 1000 ------- 0 4.0 1.0 19 117
+ 0.5 4 0 cbr 1000 ------- 0 4.0 1.0 20 118
+ 0.5 4 0 cbr 1000 ------- 0 4.0 1.0 21 119
+ 0.5 4 0 cbr 1000 ------- 0 4.0 1.0 22 120
+ 0.5 4 0 cbr 1000 ------- 0 4.0 1.0 23 121
+ 0.5 2 0 cbr 1000 ------- 0 2.0 1.0 35 122
- 0.5 2 0 cbr 1000 ------- 0 2.0 1.0 35 122
+ 0.5 2 0 cbr 1000 ------- 0 2.0 1.0 36 123
+ 0.5 2 0 cbr 1000 ------- 0 2.0 1.0 37 124
+ 0.5 2 0 cbr 1000 ------- 0 2.0 1.0 38 125
+ 0.5 2 0 cbr 1000 ------- 0 2.0 1.0 39 126
+ 0.5 2 0 cbr 1000 ------- 0 2.0 1.0 40 127
+ 0.5 2 0 cbr 1000 ------- 0 2.0 1.0 41 128
r 0.500667 3 0 cbr 1000 ------- 0 3.0 1.0 42 70
+ 0.500667 0 1 cbr 1000 ------- 0 3.0 1.0 42 70
- 0.500667 0 1 cbr 1000 ------- 0 3.0 1.0 42 70
- 0.500667 3 0 cbr 1000 ------- 0 3.0 1.0 57 92
- 0.500667 4 0 cbr 1000 ------- 0 4.0 1.0 1 99
- 0.500667 2 0 cbr 1000 ------- 0 2.0 1.0 36 123
r 0.501333 3 0 cbr 1000 ------- 0 3.0 1.0 43 71
+ 0.501333 0 1 cbr 1000 ------- 0 3.0 1.0 43 71
- 0.501333 3 0 cbr 1000 ------- 0 3.0 1.0 58 93
- 0.501333 4 0 cbr 1000 ------- 0 4.0 1.0 2 100
- 0.501333 2 0 cbr 1000 ------- 0 2.0 1.0 37 124
r 0.502 3 0 cbr 1000 ------- 0 3.0 1.0 44 72
+ 0.502 0 1 cbr 1000 ------- 0 3.0 1.0 44 72
- 0.502 0 1 cbr 1000 ------- 0 3.0 1.0 43 71
r 0.502 0 1 cbr 1000 ------- 0 3.0 1.0 14 28
- 0.502 3 0 cbr 1000 ------- 0 3.0 1.0 59 94
- 0.502 4 0 cbr 1000 ------- 0 4.0 1.0 3 101
- 0.502 2 0 cbr 1000 ------- 0 2.0 1.0 38 125
r 0.502667 3 0 cbr 1000 ------- 0 3.0 1.0 45 73
+ 0.502667 0 1 cbr 1000 ------- 0 3.0 1.0 45 73
- 0.502667 3 0 cbr 1000 ------- 0 3.0 1.0 60 95
- 0.502667 4 0 cbr 1000 ------- 0 4.0 1.0 4 102
- 0.502667 2 0 cbr 1000 ------- 0 2.0 1.0 39 126
r 0.503333 3 0 cbr 1000 ------- 0 3.0 1.0 46 74
+ 0.503333 0 1 cbr 1000 ------- 0 3.0 1.0 46 74
- 0.503333 0 1 cbr 1000 ------- 0 3.0 1.0 44 72
r 0.503333 0 1 cbr 1000 ------- 0 3.0 1.0 15 29
- 0.503333 3 0 cbr 1000 ------- 0 3.0 1.0 61 96
- 0.503333 4 0 cbr 1000 ------- 0 4.0 1.0 5 103
- 0.503333 2 0 cbr 1000 ------- 0 2.0 1.0 40 127
r 0.504 3 0 cbr 1000 ------- 0 3.0 1.0 47 75
+ 0.504 0 1 cbr 1000 ------- 0 3.0 1.0 47 75
- 0.504 3 0 cbr 1000 ------- 0 3.0 1.0 62 97
- 0.504 4 0 cbr 1000 ------- 0 4.0 1.0 6 104
- 0.504 2 0 cbr 1000 ------- 0 2.0 1.0 41 128
r 0.504667 3 0 cbr 1000 ------- 0 3.0 1.0 48 76
+ 0.504667 0 1 cbr 1000 ------- 0 3.0 1.0 48 76
- 0.504667 0 1 cbr 1000 ------- 0 3.0 1.0 45 73
r 0.504667 0 1 cbr 1000 ------- 0 3.0 1.0 16 30
- 0.504667 4 0 cbr 1000 ------- 0 4.0 1.0 7 105
- 0.505333 4 0 cbr 1000 ------- 0 4.0 1.0 8 106
- 0.506 0 1 cbr 1000 ------- 0 3.0 1.0 46 74
r 0.506 0 1 cbr 1000 ------- 0 3.0 1.0 17 31
- 0.506 4 0 cbr 1000 ------- 0 4.0 1.0 9 107
- 0.506667 4 0 cbr 1000 ------- 0 4.0 1.0 10 108
- 0.507333 0 1 cbr 1000 ------- 0 3.0 1.0 47 75
r 0.507333 0 1 cbr 1000 ------- 0 3.0 1.0 18 32
- 0.507333 4 0 cbr 1000 ------- 0 4.0 1.0 11 109
- 0.508 4 0 cbr 1000 ------- 0 4.0 1.0 12 110
- 0.508667 0 1 cbr 1000 ------- 0 3.0 1.0 48 76
r 0.508667 0 1 cbr 1000 ------- 0 3.0 1.0 19 33
- 0.508667 4 0 cbr 1000 ------- 0 4.0 1.0 13 111
- 0.509333 4 0 cbr 1000 ------- 0 4.0 1.0 14 112
r 0.51 0 1 cbr 1000 ------- 0 3.0 1.0 20 34
- 0.51 4 0 cbr 1000 ------- 0 4.0 1.0 15 113
- 0.510667 4 0 cbr 1000 ------- 0 4.0 1.0 16 114
- 0.511333 4 0 cbr 1000 ------- 0 4.0 1.0 17 115
- 0.512 4 0 cbr 1000 ------- 0 4.0 1.0 18 116
- 0.512667 4 0 cbr 1000 ------- 0 4.0 1.0 19 117
- 0.513333 4 0 cbr 1000 ------- 0 4.0 1.0 20 118
- 0.514 4 0 cbr 1000 ------- 0 4.0 1.0 21 119
- 0.514667 4 0 cbr 1000 ------- 0 4.0 1.0 22 120
- 0.515333 4 0 cbr 1000 ------- 0 4.0 1.0 23 121
+ 0.52 4 0 cbr 1000 ------- 0 4.0 1.0 24 129
- 0.52 4 0 cbr 1000 ------- 0 4.0 1.0 24 129
+ 0.52 4 0 cbr 1000 ------- 0 4.0 1.0 25 130
+ 0.52 4 0 cbr 1000 ------- 0 4.0 1.0 26 131
+ 0.52 4 0 cbr 1000 ------- 0 4.0 1.0 27 132
+ 0.52 4 0 cbr 1000 ------- 0 4.0 1.0 28 133
+ 0.52 4 0 cbr 1000 ------- 0 4.0 1.0 29 134
+ 0.52 4 0 cbr 1000 ------- 0 4.0 1.0 30 135
+ 0.52 4 0 cbr 1000 ------- 0 4.0 1.0 31 136
+ 0.52 4 0 cbr 1000 ------- 0 4.0 1.0 32 137
+ 0.52 4 0 cbr 1000 ------- 0 4.0 1.0 33 138
+ 0.52 4 0 cbr 1000 ------- 0 4.0 1.0 34 139
+ 0.52 4 0 cbr 1000 ------- 0 4.0 1.0 35 140
+ 0.52 4 0 cbr 1000 ------- 0 4.0 1.0 36 141
+ 0.52 4 0 cbr 1000 ------- 0 4.0 1.0 37 142
+ 0.52 4 0 cbr 1000 ------- 0 4.0 1.0 38 143
+ 0.52 4 0 cbr 1000 ------- 0 4.0 1.0 39 144
+ 0.52 4 0 cbr 1000 ------- 0 4.0 1.0 40 145
+ 0.52 4 0 cbr 1000 ------- 0 4.0 1.0 41 146
+ 0.52 4 0 cbr 1000 ------- 0 4.0 1.0 42 147
+ 0.52 4 0 cbr 1000 ------- 0 4.0 1.0 43 148
+ 0.52 4 0 cbr 1000 ------- 0 4.0 1.0 44 149
+ 0.52 4 0 cbr 1000 ------- 0 4.0 1.0 45 150
+ 0.52 4 0 cbr 1000 ------- 0 4.0 1.0 46 151
+ 0.52 4 0 cbr 1000 ------- 0 4.0 1.0 47 152
r 0.520667 2 0 cbr 1000 ------- 0 2.0 1.0 28 77
+ 0.520667 0 1 cbr 1000 ------- 0 2.0 1.0 28 77
- 0.520667 0 1 cbr 1000 ------- 0 2.0 1.0 28 77
- 0.520667 4 0 cbr 1000 ------- 0 4.0 1.0 25 130
r 0.521333 2 0 cbr 1000 ------- 0 2.0 1.0 29 78
+ 0.521333 0 1 cbr 1000 ------- 0 2.0 1.0 29 78
- 0.521333 4 0 cbr 1000 ------- 0 4.0 1.0 26 131
r 0.522 2 0 cbr 1000 ------- 0 2.0 1.0 30 79
+ 0.522 0 1 cbr 1000 ------- 0 2.0 1.0 30 79
- 0.522 0 1 cbr 1000 ------- 0 2.0 1.0 29 78
- 0.522 4 0 cbr 1000 ------- 0 4.0 1.0 27 132
r 0.522667 2 0 cbr 1000 ------- 0 2.0 1.0 31 80
+ 0.522667 0 1 cbr 1000 ------- 0 2.0 1.0 31 80
- 0.522667 4 0 cbr 1000 ------- 0 4.0 1.0 28 133
r 0.523333 2 0 cbr 1000 ------- 0 2.0 1.0 32 81
+ 0.523333 0 1 cbr 1000 ------- 0 2.0 1.0 32 81
- 0.523333 0 1 cbr 1000 ------- 0 2.0 1.0 30 79
- 0.523333 4 0 cbr 1000 ------- 0 4.0 1.0 29 134
r 0.524 2 0 cbr 1000 ------- 0 2.0 1.0 33 82
+ 0.524 0 1 cbr 1000 ------- 0 2.0 1.0 33 82
- 0.524 4 0 cbr 1000 ------- 0 4.0 1.0 30 135
r 0.524667 2 0 cbr 1000 ------- 0 2.0 1.0 34 83
+ 0.524667 0 1 cbr 1000 ------- 0 2.0 1.0 34 83
- 0.524667 0 1 cbr 1000 ------- 0 2.0 1.0 31 80
- 0.524667 4 0 cbr 1000 ------- 0 4.0 1.0 31 136
- 0.525333 4 0 cbr 1000 ------- 0 4.0 1.0 32 137
- 0.526 0 1 cbr 1000 ------- 0 2.0 1.0 32 81
- 0.526 4 0 cbr 1000 ------- 0 4.0 1.0 33 138
- 0.526667 4 0 cbr 1000 ------- 0 4.0 1.0 34 139
- 0.527333 0 1 cbr 1000 ------- 0 2.0 1.0 33 82
- 0.527333 4 0 cbr 1000 ------- 0 4.0 1.0 35 140
- 0.528 4 0 cbr 1000 ------- 0 4.0 1.0 36 141
- 0.528667 0 1 cbr 1000 ------- 0 2.0 1.0 34 83
- 0.528667 4 0 cbr 1000 ------- 0 4.0 1.0 37 142
- 0.529333 4 0 cbr 1000 ------- 0 4.0 1.0 38 143
- 0.53 4 0 cbr 1000 ------- 0 4.0 1.0 39 144
- 0.530667 4 0 cbr 1000 ------- 0 4.0 1.0 40 145
- 0.531333 4 0 cbr 1000 ------- 0 4.0 1.0 41 146
- 0.532 4 0 cbr 1000 ------- 0 4.0 1.0 42 147
- 0.532667 4 0 cbr 1000 ------- 0 4.0 1.0 43 148
- 0.533333 4 0 cbr 1000 ------- 0 4.0 1.0 44 149
- 0.534 4 0 cbr 1000 ------- 0 4.0 1.0 45 150
- 0.534667 4 0 cbr 1000 ------- 0 4.0 1.0 46 151
- 0.535333 4 0 cbr 1000 ------- 0 4.0 1.0 47 152
+ 0.54 4 0 cbr 1000 ------- 0 4.0 1.0 48 153
- 0.54 4 0 cbr 1000 ------- 0 4.0 1.0 48 153
+ 0.54 4 0 cbr 1000 ------- 0 4.0 1.0 49 154
+ 0.54 4 0 cbr 1000 ------- 0 4.0 1.0 50 155
+ 0.54 4 0 cbr 1000 ------- 0 4.0 1.0 51 156
+ 0.54 4 0 cbr 1000 ------- 0 4.0 1.0 52 157
+ 0.54 4 0 cbr 1000 ------- 0 4.0 1.0 53 158
+ 0.54 4 0 cbr 1000 ------- 0 4.0 1.0 54 159
+ 0.54 4 0 cbr 1000 ------- 0 4.0 1.0 55 160
+ 0.54 4 0 cbr 1000 ------- 0 4.0 1.0 56 161
+ 0.54 4 0 cbr 1000 ------- 0 4.0 1.0 57 162
+ 0.54 4 0 cbr 1000 ------- 0 4.0 1.0 58 163
+ 0.54 4 0 cbr 1000 ------- 0 4.0 1.0 59 164
+ 0.54 4 0 cbr 1000 ------- 0 4.0 1.0 60 165
+ 0.54 4 0 cbr 1000 ------- 0 4.0 1.0 61 166
+ 0.54 4 0 cbr 1000 ------- 0 4.0 1.0 62 167
+ 0.54 4 0 cbr 1000 ------- 0 4.0 1.0 63 168
+ 0.54 4 0 cbr 1000 ------- 0 4.0 1.0 64 169
+ 0.54 4 0 cbr 1000 ------- 0 4.0 1.0 65 170
+ 0.54 4 0 cbr 1000 ------- 0 4.0 1.0 66 171
+ 0.54 4 0 cbr 1000 ------- 0 4.0 1.0 67 172
+ 0.54 4 0 cbr 1000 ------- 0 4.0 1.0 68 173
+ 0.54 4 0 cbr 1000 ------- 0 4.0 1.0 69 174
+ 0.54 4 0 cbr 1000 ------- 0 4.0 1.0 70 175
+ 0.54 4 0 cbr 1000 ------- 0 4.0 1.0 71 176
- 0.540667 4 0 cbr 1000 ------- 0 4.0 1.0 49 154
- 0.541333 4 0 cbr 1000 ------- 0 4.0 1.0 50 155
- 0.542 4 0 cbr 1000 ------- 0 4.0 1.0 51 156
- 0.542667 4 0 cbr 1000 ------- 0 4.0 1.0 52 157
- 0.543333 4 0 cbr 1000 ------- 0 4.0 1.0 53 158
- 0.544 4 0 cbr 1000 ------- 0 4.0 1.0 54 159
- 0.544667 4 0 cbr 1000 ------- 0 4.0 1.0 55 160
- 0.545333 4 0 cbr 1000 ------- 0 4.0 1.0 56 161
- 0.546 4 0 cbr 1000 ------- 0 4.0 1.0 57 162
- 0.546667 4 0 cbr 1000 ------- 0 4.0 1.0 58 163
- 0.547333 4 0 cbr 1000 ------- 0 4.0 1.0 59 164
- 0.548 4 0 cbr 1000 ------- 0 4.0 1.0 60 165
- 0.548667 4 0 cbr 1000 ------- 0 4.0 1.0 61 166
- 0.549333 4 0 cbr 1000 ------- 0 4.0 1.0 62 167
+ 0.55 3 0 cbr 1000 ------- 0 3.0 1.0 63 177
- 0.55 3 0 cbr 1000 ------- 0 3.0 1.0 63 177
+ 0.55 3 0 cbr 1000 ------- 0 3.0 1.0 64 178
+ 0.55 3 0 cbr 1000 ------- 0 3.0 1.0 65 179
+ 0.55 3 0 cbr 1000 ------- 0 3.0 1.0 66 180
+ 0.55 3 0 cbr 1000 ------- 0 3.0 1.0 67 181
+ 0.55 3 0 cbr 1000 ------- 0 3.0 1.0 68 182
+ 0.55 3 0 cbr 1000 ------- 0 3.0 1.0 69 183
- 0.55 4 0 cbr 1000 ------- 0 4.0 1.0 63 168
r 0.550667 3 0 cbr 1000 ------- 0 3.0 1.0 49 84
+ 0.550667 0 1 cbr 1000 ------- 0 3.0 1.0 49 84
- 0.550667 0 1 cbr 1000 ------- 0 3.0 1.0 49 84
- 0.550667 3 0 cbr 1000 ------- 0 3.0 1.0 64 178
- 0.550667 4 0 cbr 1000 ------- 0 4.0 1.0 64 169
r 0.551333 3 0 cbr 1000 ------- 0 3.0 1.0 50 85
+ 0.551333 0 1 cbr 1000 ------- 0 3.0 1.0 50 85
- 0.551333 3 0 cbr 1000 ------- 0 3.0 1.0 65 179
- 0.551333 4 0 cbr 1000 ------- 0 4.0 1.0 65 170
r 0.552 3 0 cbr 1000 ------- 0 3.0 1.0 51 86
+ 0.552 0 1 cbr 1000 ------- 0 3.0 1.0 51 86
- 0.552 0 1 cbr 1000 ------- 0 3.0 1.0 50 85